<?xml version="1.0"?>
<VTKFile type="UnstructuredGrid" version="0.1" byte_order="LittleEndian">
  <UnstructuredGrid>
    <Piece NumberOfPoints="13" NumberOfCells="16">
      <Points>
        <DataArray type="Float32" Name="Coordinates" NumberOfComponents="3" format="ascii">
        0 0 0 0 0.5 0 0 1 0 0.25 0.25 0 
        0.25 0.75 0 0.5 0 0 0.5 0.5 0 0.5 1 0 
        0.75 0.25 0 0.75 0.75 0 1 0 0 1 0.5 0 
        1 1 0 
        </DataArray>
      </Points>
      <Cells>
        <DataArray type="Int32" Name="connectivity" NumberOfComponents="1" format="ascii">
        0 5 3 5 6 3 6 1 3 1 0 3 
        1 6 4 6 7 4 7 2 4 2 1 4 
        5 10 8 10 11 8 11 6 8 6 5 8 
        6 11 9 11 12 9 12 7 9 7 6 9 
        </DataArray>
        <DataArray type="Int32" Name="offsets" NumberOfComponents="1" format="ascii">
        3 6 9 12 15 18 21 24 27 30 33 36 
        39 42 45 48 
        </DataArray>
        <DataArray type="UInt8" Name="types" NumberOfComponents="1" format="ascii">
        5 5 5 5 5 5 5 5 5 5 5 5 
        5 5 5 5 
        </DataArray>
      </Cells>
      <CellData Scalars="domain">
        <DataArray type="UInt8" Name="domain" NumberOfComponents="1" format="ascii">
        1 1 0 0 
        0 3 3 0 
        1 2 2 1 
        2 2 3 3 
        </DataArray>
      </CellData>
      <PointData>
      </PointData>
    </Piece>
  </UnstructuredGrid>
</VTKFile>
