<VTKFile type="UnstructuredGrid" version="1.0" byte_order="LittleEndian" header_type="UInt64">
  <UnstructuredGrid>
    <Piece NumberOfPoints="825" NumberOfCells="2560">
      <PointData>
      </PointData>
      <CellData Scalars="domain">
        <DataArray type="Int32" Name="domain" format="ascii">
          2 2 2 2 2 2
          2 2 2 2 2 2
          2 2 2 2 2 2
          2 2 4 4 4 4
          4 4 4 4 4 4
          4 4 4 4 4 6
          6 6 6 6 6 6
          6 6 6 6 6 6
          6 6 8 8 8 8
          8 8 8 8 8 8
          8 8 8 8 8 10
          10 10 10 10 10 10
          10 10 10 10 10 10
          10 10 12 12 12 12
          12 12 12 12 12 12
          12 12 12 12 12 14
          14 14 14 14 14 14
          14 14 14 14 14 14
          14 14 16 16 16 16
          16 16 16 16 16 16
          16 16 16 16 16 18
          18 18 18 18 18 18
          18 18 18 18 18 18
          18 18 20 20 20 20
          20 20 20 20 20 20
          20 20 20 20 20 20
          20 20 20 20 2 2
          2 2 2 2 2 2
          2 2 2 2 2 2
          2 2 2 2 2 2
          4 4 4 4 4 4
          4 4 4 4 4 4
          4 4 4 6 6 6
          6 6 6 6 6 6
          6 6 6 6 6 6
          8 8 8 8 8 8
          8 8 8 8 8 8
          8 8 8 10 10 10
          10 10 10 10 10 10
          10 10 10 10 10 10
          12 12 12 12 12 12
          12 12 12 12 12 12
          12 12 12 14 14 14
          14 14 14 14 14 14
          14 14 14 14 14 14
          16 16 16 16 16 16
          16 16 16 16 16 16
          16 16 16 18 18 18
          18 18 18 18 18 18
          18 18 18 18 18 18
          20 20 20 20 20 20
          20 20 20 20 20 20
          20 20 20 20 20 20
          20 20 2 2 2 2
          2 2 2 2 2 2
          2 2 2 2 2 2
          2 2 2 2 4 4
          4 4 4 4 4 4
          4 4 4 4 4 4
          4 6 6 6 6 6
          6 6 6 6 6 6
          6 6 6 6 8 8
          8 8 8 8 8 8
          8 8 8 8 8 8
          8 10 10 10 10 10
          10 10 10 10 10 10
          10 10 10 10 12 12
          12 12 12 12 12 12
          12 12 12 12 12 12
          12 14 14 14 14 14
          14 14 14 14 14 14
          14 14 14 14 16 16
          16 16 16 16 16 16
          16 16 16 16 16 16
          16 18 18 18 18 18
          18 18 18 18 18 18
          18 18 18 18 20 20
          20 20 20 20 20 20
          20 20 20 20 20 20
          20 20 20 20 20 20
          2 2 2 2 2 2
          2 2 2 2 2 2
          2 2 2 2 2 2
          2 2 4 4 4 4
          4 4 4 4 4 4
          4 4 4 4 4 6
          6 6 6 6 6 6
          6 6 6 6 6 6
          6 6 8 8 8 8
          8 8 8 8 8 8
          8 8 8 8 8 10
          10 10 10 10 10 10
          10 10 10 10 10 10
          10 10 12 12 12 12
          12 12 12 12 12 12
          12 12 12 12 12 14
          14 14 14 14 14 14
          14 14 14 14 14 14
          14 14 16 16 16 16
          16 16 16 16 16 16
          16 16 16 16 16 18
          18 18 18 18 18 18
          18 18 18 18 18 18
          18 18 20 20 20 20
          20 20 20 20 20 20
          20 20 20 20 20 20
          20 20 20 20 2 2
          2 2 2 2 2 2
          2 2 2 2 2 2
          2 2 2 2 2 2
          4 4 4 4 4 4
          4 4 4 4 4 4
          4 4 4 6 6 6
          6 6 6 6 6 6
          6 6 6 6 6 6
          8 8 8 8 8 8
          8 8 8 8 8 8
          8 8 8 10 10 10
          10 10 10 10 10 10
          10 10 10 10 10 10
          12 12 12 12 12 12
          12 12 12 12 12 12
          12 12 12 14 14 14
          14 14 14 14 14 14
          14 14 14 14 14 14
          16 16 16 16 16 16
          16 16 16 16 16 16
          16 16 16 18 18 18
          18 18 18 18 18 18
          18 18 18 18 18 18
          20 20 20 20 20 20
          20 20 20 20 20 20
          20 20 20 20 20 20
          20 20 2 2 2 2
          2 3 3 3 3 3
          3 3 3 3 3 3
          3 3 3 3 5 5
          5 5 5 5 5 5
          5 5 5 5 5 5
          5 7 7 7 7 7
          7 7 7 7 7 7
          7 7 7 7 9 9
          9 9 9 9 9 9
          9 9 9 9 9 9
          9 11 11 11 11 11
          11 11 11 11 11 11
          11 11 11 11 13 13
          13 13 13 13 13 13
          13 13 13 13 13 13
          13 15 15 15 15 15
          15 15 15 15 15 15
          15 15 15 15 17 17
          17 17 17 17 17 17
          17 17 17 17 17 17
          17 19 19 19 19 19
          19 19 19 19 19 19
          19 19 19 19 21 21
          21 21 21 21 21 21
          21 21 21 21 21 21
          21 20 20 20 20 20
          2 2 2 2 2 3
          3 3 3 3 3 3
          3 3 3 3 3 3
          3 3 5 5 5 5
          5 5 5 5 5 5
          5 5 5 5 5 7
          7 7 7 7 7 7
          7 7 7 7 7 7
          7 7 9 9 9 9
          9 9 9 9 9 9
          9 9 9 9 9 11
          11 11 11 11 11 11
          11 11 11 11 11 11
          11 11 13 13 13 13
          13 13 13 13 13 13
          13 13 13 13 13 15
          15 15 15 15 15 15
          15 15 15 15 15 15
          15 15 17 17 17 17
          17 17 17 17 17 17
          17 17 17 17 17 19
          19 19 19 19 19 19
          19 19 19 19 19 19
          19 19 21 21 21 21
          21 21 21 21 21 21
          21 21 21 21 21 20
          20 20 20 20 2 2
          2 2 2 2 2 2
          2 2 2 2 2 2
          2 2 2 2 2 2
          4 4 4 4 4 4
          4 4 4 4 4 4
          4 4 4 6 6 6
          6 6 6 6 6 6
          6 6 6 6 6 6
          8 8 8 8 8 8
          8 8 8 8 8 8
          8 8 8 10 10 10
          10 10 10 10 10 10
          10 10 10 10 10 10
          12 12 12 12 12 12
          12 12 12 12 12 12
          12 12 12 14 14 14
          14 14 14 14 14 14
          14 14 14 14 14 14
          16 16 16 16 16 16
          16 16 16 16 16 16
          16 16 16 18 18 18
          18 18 18 18 18 18
          18 18 18 18 18 18
          20 20 20 20 20 20
          20 20 20 20 20 20
          20 20 20 20 20 20
          20 20 2 2 2 2
          2 2 2 2 2 2
          2 2 2 2 2 2
          2 2 2 2 4 4
          4 4 4 4 4 4
          4 4 4 4 4 4
          4 6 6 6 6 6
          6 6 6 6 6 6
          6 6 6 6 8 8
          8 8 8 8 8 8
          8 8 8 8 8 8
          8 10 10 10 10 10
          10 10 10 10 10 10
          10 10 10 10 12 12
          12 12 12 12 12 12
          12 12 12 12 12 12
          12 14 14 14 14 14
          14 14 14 14 14 14
          14 14 14 14 16 16
          16 16 16 16 16 16
          16 16 16 16 16 16
          16 18 18 18 18 18
          18 18 18 18 18 18
          18 18 18 18 20 20
          20 20 20 20 20 20
          20 20 20 20 20 20
          20 20 20 20 20 20
          2 2 2 2 2 3
          3 3 3 3 3 3
          3 3 3 3 3 3
          3 3 5 5 5 5
          5 5 5 5 5 5
          5 5 5 5 5 7
          7 7 7 7 7 7
          7 7 7 7 7 7
          7 7 9 9 9 9
          9 9 9 9 9 9
          9 9 9 9 9 11
          11 11 11 11 11 11
          11 11 11 11 11 11
          11 11 13 13 13 13
          13 13 13 13 13 13
          13 13 13 13 13 15
          15 15 15 15 15 15
          15 15 15 15 15 15
          15 15 17 17 17 17
          17 17 17 17 17 17
          17 17 17 17 17 19
          19 19 19 19 19 19
          19 19 19 19 19 19
          19 19 21 21 21 21
          21 21 21 21 21 21
          21 21 21 21 21 20
          20 20 20 20 2 2
          2 2 2 3 3 3
          3 3 3 3 3 3
          3 3 3 3 3 3
          5 5 5 5 5 5
          5 5 5 5 5 5
          5 5 5 7 7 7
          7 7 7 7 7 7
          7 7 7 7 7 7
          9 9 9 9 9 9
          9 9 9 9 9 9
          9 9 9 11 11 11
          11 11 11 11 11 11
          11 11 11 11 11 11
          13 13 13 13 13 13
          13 13 13 13 13 13
          13 13 13 15 15 15
          15 15 15 15 15 15
          15 15 15 15 15 15
          17 17 17 17 17 17
          17 17 17 17 17 17
          17 17 17 19 19 19
          19 19 19 19 19 19
          19 19 19 19 19 19
          21 21 21 21 21 21
          21 21 21 21 21 21
          21 21 21 20 20 20
          20 20 2 2 2 2
          2 2 2 2 2 2
          2 2 2 2 2 2
          2 2 2 2 4 4
          4 4 4 4 4 4
          4 4 4 4 4 4
          4 6 6 6 6 6
          6 6 6 6 6 6
          6 6 6 6 8 8
          8 8 8 8 8 8
          8 8 8 8 8 8
          8 10 10 10 10 10
          10 10 10 10 10 10
          10 10 10 10 12 12
          12 12 12 12 12 12
          12 12 12 12 12 12
          12 14 14 14 14 14
          14 14 14 14 14 14
          14 14 14 14 16 16
          16 16 16 16 16 16
          16 16 16 16 16 16
          16 18 18 18 18 18
          18 18 18 18 18 18
          18 18 18 18 20 20
          20 20 20 20 20 20
          20 20 20 20 20 20
          20 20 20 20 20 20
          2 2 2 2 2 2
          2 2 2 2 2 2
          2 2 2 2 2 2
          2 2 4 4 4 4
          4 4 4 4 4 4
          4 4 4 4 4 6
          6 6 6 6 6 6
          6 6 6 6 6 6
          6 6 8 8 8 8
          8 8 8 8 8 8
          8 8 8 8 8 10
          10 10 10 10 10 10
          10 10 10 10 10 10
          10 10 12 12 12 12
          12 12 12 12 12 12
          12 12 12 12 12 14
          14 14 14 14 14 14
          14 14 14 14 14 14
          14 14 16 16 16 16
          16 16 16 16 16 16
          16 16 16 16 16 18
          18 18 18 18 18 18
          18 18 18 18 18 18
          18 18 20 20 20 20
          20 20 20 20 20 20
          20 20 20 20 20 20
          20 20 20 20 2 2
          2 2 2 2 2 2
          2 2 2 2 2 2
          2 2 2 2 2 2
          4 4 4 4 4 4
          4 4 4 4 4 4
          4 4 4 6 6 6
          6 6 6 6 6 6
          6 6 6 6 6 6
          8 8 8 8 8 8
          8 8 8 8 8 8
          8 8 8 10 10 10
          10 10 10 10 10 10
          10 10 10 10 10 10
          12 12 12 12 12 12
          12 12 12 12 12 12
          12 12 12 14 14 14
          14 14 14 14 14 14
          14 14 14 14 14 14
          16 16 16 16 16 16
          16 16 16 16 16 16
          16 16 16 18 18 18
          18 18 18 18 18 18
          18 18 18 18 18 18
          20 20 20 20 20 20
          20 20 20 20 20 20
          20 20 20 20 20 20
          20 20 2 2 2 2
          2 2 2 2 2 2
          2 2 2 2 2 2
          2 2 2 2 4 4
          4 4 4 4 4 4
          4 4 4 4 4 4
          4 6 6 6 6 6
          6 6 6 6 6 6
          6 6 6 6 8 8
          8 8 8 8 8 8
          8 8 8 8 8 8
          8 10 10 10 10 10
          10 10 10 10 10 10
          10 10 10 10 12 12
          12 12 12 12 12 12
          12 12 12 12 12 12
          12 14 14 14 14 14
          14 14 14 14 14 14
          14 14 14 14 16 16
          16 16 16 16 16 16
          16 16 16 16 16 16
          16 18 18 18 18 18
          18 18 18 18 18 18
          18 18 18 18 20 20
          20 20 20 20 20 20
          20 20 20 20 20 20
          20 20 20 20 20 20
          2 2 2 2 2 2
          2 2 2 2 2 2
          2 2 2 2 2 2
          2 2 4 4 4 4
          4 4 4 4 4 4
          4 4 4 4 4 6
          6 6 6 6 6 6
          6 6 6 6 6 6
          6 6 8 8 8 8
          8 8 8 8 8 8
          8 8 8 8 8 10
          10 10 10 10 10 10
          10 10 10 10 10 10
          10 10 12 12 12 12
          12 12 12 12 12 12
          12 12 12 12 12 14
          14 14 14 14 14 14
          14 14 14 14 14 14
          14 14 16 16 16 16
          16 16 16 16 16 16
          16 16 16 16 16 18
          18 18 18 18 18 18
          18 18 18 18 18 18
          18 18 20 20 20 20
          20 20 20 20 20 20
          20 20 20 20 20 20
          20 20 20 20
        </DataArray>
      </CellData>
      <Points>
        <DataArray type="Float32" Name="Points" NumberOfComponents="3" format="ascii">
          -1.6000  -0.2000  -0.2000  -1.5000  -0.2000  -0.2000
          -1.4000  -0.2000  -0.2000  -1.3000  -0.2000  -0.2000
          -1.2000  -0.2000  -0.2000  -1.1000  -0.2000  -0.2000
          -1.0000  -0.2000  -0.2000  -0.9000  -0.2000  -0.2000
          -0.8000  -0.2000  -0.2000  -0.7000  -0.2000  -0.2000
          -0.6000  -0.2000  -0.2000  -0.5000  -0.2000  -0.2000
          -0.4000  -0.2000  -0.2000  -0.3000  -0.2000  -0.2000
          -0.2000  -0.2000  -0.2000  -0.1000  -0.2000  -0.2000
                0  -0.2000  -0.2000   0.1000  -0.2000  -0.2000
           0.2000  -0.2000  -0.2000   0.3000  -0.2000  -0.2000
           0.4000  -0.2000  -0.2000   0.5000  -0.2000  -0.2000
           0.6000  -0.2000  -0.2000   0.7000  -0.2000  -0.2000
           0.8000  -0.2000  -0.2000   0.9000  -0.2000  -0.2000
           1.0000  -0.2000  -0.2000   1.1000  -0.2000  -0.2000
           1.2000  -0.2000  -0.2000   1.3000  -0.2000  -0.2000
           1.4000  -0.2000  -0.2000   1.5000  -0.2000  -0.2000
           1.6000  -0.2000  -0.2000  -1.6000  -0.1000  -0.2000
          -1.5000  -0.1000  -0.2000  -1.4000  -0.1000  -0.2000
          -1.3000  -0.1000  -0.2000  -1.2000  -0.1000  -0.2000
          -1.1000  -0.1000  -0.2000  -1.0000  -0.1000  -0.2000
          -0.9000  -0.1000  -0.2000  -0.8000  -0.1000  -0.2000
          -0.7000  -0.1000  -0.2000  -0.6000  -0.1000  -0.2000
          -0.5000  -0.1000  -0.2000  -0.4000  -0.1000  -0.2000
          -0.3000  -0.1000  -0.2000  -0.2000  -0.1000  -0.2000
          -0.1000  -0.1000  -0.2000        0  -0.1000  -0.2000
           0.1000  -0.1000  -0.2000   0.2000  -0.1000  -0.2000
           0.3000  -0.1000  -0.2000   0.4000  -0.1000  -0.2000
           0.5000  -0.1000  -0.2000   0.6000  -0.1000  -0.2000
           0.7000  -0.1000  -0.2000   0.8000  -0.1000  -0.2000
           0.9000  -0.1000  -0.2000   1.0000  -0.1000  -0.2000
           1.1000  -0.1000  -0.2000   1.2000  -0.1000  -0.2000
           1.3000  -0.1000  -0.2000   1.4000  -0.1000  -0.2000
           1.5000  -0.1000  -0.2000   1.6000  -0.1000  -0.2000
          -1.6000        0  -0.2000  -1.5000        0  -0.2000
          -1.4000        0  -0.2000  -1.3000        0  -0.2000
          -1.2000        0  -0.2000  -1.1000        0  -0.2000
          -1.0000        0  -0.2000  -0.9000        0  -0.2000
          -0.8000        0  -0.2000  -0.7000        0  -0.2000
          -0.6000        0  -0.2000  -0.5000        0  -0.2000
          -0.4000        0  -0.2000  -0.3000        0  -0.2000
          -0.2000        0  -0.2000  -0.1000        0  -0.2000
                0        0  -0.2000   0.1000        0  -0.2000
           0.2000        0  -0.2000   0.3000        0  -0.2000
           0.4000        0  -0.2000   0.5000        0  -0.2000
           0.6000        0  -0.2000   0.7000        0  -0.2000
           0.8000        0  -0.2000   0.9000        0  -0.2000
           1.0000        0  -0.2000   1.1000        0  -0.2000
           1.2000        0  -0.2000   1.3000        0  -0.2000
           1.4000        0  -0.2000   1.5000        0  -0.2000
           1.6000        0  -0.2000  -1.6000   0.1000  -0.2000
          -1.5000   0.1000  -0.2000  -1.4000   0.1000  -0.2000
          -1.3000   0.1000  -0.2000  -1.2000   0.1000  -0.2000
          -1.1000   0.1000  -0.2000  -1.0000   0.1000  -0.2000
          -0.9000   0.1000  -0.2000  -0.8000   0.1000  -0.2000
          -0.7000   0.1000  -0.2000  -0.6000   0.1000  -0.2000
          -0.5000   0.1000  -0.2000  -0.4000   0.1000  -0.2000
          -0.3000   0.1000  -0.2000  -0.2000   0.1000  -0.2000
          -0.1000   0.1000  -0.2000        0   0.1000  -0.2000
           0.1000   0.1000  -0.2000   0.2000   0.1000  -0.2000
           0.3000   0.1000  -0.2000   0.4000   0.1000  -0.2000
           0.5000   0.1000  -0.2000   0.6000   0.1000  -0.2000
           0.7000   0.1000  -0.2000   0.8000   0.1000  -0.2000
           0.9000   0.1000  -0.2000   1.0000   0.1000  -0.2000
           1.1000   0.1000  -0.2000   1.2000   0.1000  -0.2000
           1.3000   0.1000  -0.2000   1.4000   0.1000  -0.2000
           1.5000   0.1000  -0.2000   1.6000   0.1000  -0.2000
          -1.6000   0.2000  -0.2000  -1.5000   0.2000  -0.2000
          -1.4000   0.2000  -0.2000  -1.3000   0.2000  -0.2000
          -1.2000   0.2000  -0.2000  -1.1000   0.2000  -0.2000
          -1.0000   0.2000  -0.2000  -0.9000   0.2000  -0.2000
          -0.8000   0.2000  -0.2000  -0.7000   0.2000  -0.2000
          -0.6000   0.2000  -0.2000  -0.5000   0.2000  -0.2000
          -0.4000   0.2000  -0.2000  -0.3000   0.2000  -0.2000
          -0.2000   0.2000  -0.2000  -0.1000   0.2000  -0.2000
                0   0.2000  -0.2000   0.1000   0.2000  -0.2000
           0.2000   0.2000  -0.2000   0.3000   0.2000  -0.2000
           0.4000   0.2000  -0.2000   0.5000   0.2000  -0.2000
           0.6000   0.2000  -0.2000   0.7000   0.2000  -0.2000
           0.8000   0.2000  -0.2000   0.9000   0.2000  -0.2000
           1.0000   0.2000  -0.2000   1.1000   0.2000  -0.2000
           1.2000   0.2000  -0.2000   1.3000   0.2000  -0.2000
           1.4000   0.2000  -0.2000   1.5000   0.2000  -0.2000
           1.6000   0.2000  -0.2000  -1.6000  -0.2000  -0.1000
          -1.5000  -0.2000  -0.1000  -1.4000  -0.2000  -0.1000
          -1.3000  -0.2000  -0.1000  -1.2000  -0.2000  -0.1000
          -1.1000  -0.2000  -0.1000  -1.0000  -0.2000  -0.1000
          -0.9000  -0.2000  -0.1000  -0.8000  -0.2000  -0.1000
          -0.7000  -0.2000  -0.1000  -0.6000  -0.2000  -0.1000
          -0.5000  -0.2000  -0.1000  -0.4000  -0.2000  -0.1000
          -0.3000  -0.2000  -0.1000  -0.2000  -0.2000  -0.1000
          -0.1000  -0.2000  -0.1000        0  -0.2000  -0.1000
           0.1000  -0.2000  -0.1000   0.2000  -0.2000  -0.1000
           0.3000  -0.2000  -0.1000   0.4000  -0.2000  -0.1000
           0.5000  -0.2000  -0.1000   0.6000  -0.2000  -0.1000
           0.7000  -0.2000  -0.1000   0.8000  -0.2000  -0.1000
           0.9000  -0.2000  -0.1000   1.0000  -0.2000  -0.1000
           1.1000  -0.2000  -0.1000   1.2000  -0.2000  -0.1000
           1.3000  -0.2000  -0.1000   1.4000  -0.2000  -0.1000
           1.5000  -0.2000  -0.1000   1.6000  -0.2000  -0.1000
          -1.6000  -0.1000  -0.1000  -1.5000  -0.1000  -0.1000
          -1.4000  -0.1000  -0.1000  -1.3000  -0.1000  -0.1000
          -1.2000  -0.1000  -0.1000  -1.1000  -0.1000  -0.1000
          -1.0000  -0.1000  -0.1000  -0.9000  -0.1000  -0.1000
          -0.8000  -0.1000  -0.1000  -0.7000  -0.1000  -0.1000
          -0.6000  -0.1000  -0.1000  -0.5000  -0.1000  -0.1000
          -0.4000  -0.1000  -0.1000  -0.3000  -0.1000  -0.1000
          -0.2000  -0.1000  -0.1000  -0.1000  -0.1000  -0.1000
                0  -0.1000  -0.1000   0.1000  -0.1000  -0.1000
           0.2000  -0.1000  -0.1000   0.3000  -0.1000  -0.1000
           0.4000  -0.1000  -0.1000   0.5000  -0.1000  -0.1000
           0.6000  -0.1000  -0.1000   0.7000  -0.1000  -0.1000
           0.8000  -0.1000  -0.1000   0.9000  -0.1000  -0.1000
           1.0000  -0.1000  -0.1000   1.1000  -0.1000  -0.1000
           1.2000  -0.1000  -0.1000   1.3000  -0.1000  -0.1000
           1.4000  -0.1000  -0.1000   1.5000  -0.1000  -0.1000
           1.6000  -0.1000  -0.1000  -1.6000        0  -0.1000
          -1.5000        0  -0.1000  -1.4000        0  -0.1000
          -1.3000        0  -0.1000  -1.2000        0  -0.1000
          -1.1000        0  -0.1000  -1.0000        0  -0.1000
          -0.9000        0  -0.1000  -0.8000        0  -0.1000
          -0.7000        0  -0.1000  -0.6000        0  -0.1000
          -0.5000        0  -0.1000  -0.4000        0  -0.1000
          -0.3000        0  -0.1000  -0.2000        0  -0.1000
          -0.1000        0  -0.1000        0        0  -0.1000
           0.1000        0  -0.1000   0.2000        0  -0.1000
           0.3000        0  -0.1000   0.4000        0  -0.1000
           0.5000        0  -0.1000   0.6000        0  -0.1000
           0.7000        0  -0.1000   0.8000        0  -0.1000
           0.9000        0  -0.1000   1.0000        0  -0.1000
           1.1000        0  -0.1000   1.2000        0  -0.1000
           1.3000        0  -0.1000   1.4000        0  -0.1000
           1.5000        0  -0.1000   1.6000        0  -0.1000
          -1.6000   0.1000  -0.1000  -1.5000   0.1000  -0.1000
          -1.4000   0.1000  -0.1000  -1.3000   0.1000  -0.1000
          -1.2000   0.1000  -0.1000  -1.1000   0.1000  -0.1000
          -1.0000   0.1000  -0.1000  -0.9000   0.1000  -0.1000
          -0.8000   0.1000  -0.1000  -0.7000   0.1000  -0.1000
          -0.6000   0.1000  -0.1000  -0.5000   0.1000  -0.1000
          -0.4000   0.1000  -0.1000  -0.3000   0.1000  -0.1000
          -0.2000   0.1000  -0.1000  -0.1000   0.1000  -0.1000
                0   0.1000  -0.1000   0.1000   0.1000  -0.1000
           0.2000   0.1000  -0.1000   0.3000   0.1000  -0.1000
           0.4000   0.1000  -0.1000   0.5000   0.1000  -0.1000
           0.6000   0.1000  -0.1000   0.7000   0.1000  -0.1000
           0.8000   0.1000  -0.1000   0.9000   0.1000  -0.1000
           1.0000   0.1000  -0.1000   1.1000   0.1000  -0.1000
           1.2000   0.1000  -0.1000   1.3000   0.1000  -0.1000
           1.4000   0.1000  -0.1000   1.5000   0.1000  -0.1000
           1.6000   0.1000  -0.1000  -1.6000   0.2000  -0.1000
          -1.5000   0.2000  -0.1000  -1.4000   0.2000  -0.1000
          -1.3000   0.2000  -0.1000  -1.2000   0.2000  -0.1000
          -1.1000   0.2000  -0.1000  -1.0000   0.2000  -0.1000
          -0.9000   0.2000  -0.1000  -0.8000   0.2000  -0.1000
          -0.7000   0.2000  -0.1000  -0.6000   0.2000  -0.1000
          -0.5000   0.2000  -0.1000  -0.4000   0.2000  -0.1000
          -0.3000   0.2000  -0.1000  -0.2000   0.2000  -0.1000
          -0.1000   0.2000  -0.1000        0   0.2000  -0.1000
           0.1000   0.2000  -0.1000   0.2000   0.2000  -0.1000
           0.3000   0.2000  -0.1000   0.4000   0.2000  -0.1000
           0.5000   0.2000  -0.1000   0.6000   0.2000  -0.1000
           0.7000   0.2000  -0.1000   0.8000   0.2000  -0.1000
           0.9000   0.2000  -0.1000   1.0000   0.2000  -0.1000
           1.1000   0.2000  -0.1000   1.2000   0.2000  -0.1000
           1.3000   0.2000  -0.1000   1.4000   0.2000  -0.1000
           1.5000   0.2000  -0.1000   1.6000   0.2000  -0.1000
          -1.6000  -0.2000        0  -1.5000  -0.2000        0
          -1.4000  -0.2000        0  -1.3000  -0.2000        0
          -1.2000  -0.2000        0  -1.1000  -0.2000        0
          -1.0000  -0.2000        0  -0.9000  -0.2000        0
          -0.8000  -0.2000        0  -0.7000  -0.2000        0
          -0.6000  -0.2000        0  -0.5000  -0.2000        0
          -0.4000  -0.2000        0  -0.3000  -0.2000        0
          -0.2000  -0.2000        0  -0.1000  -0.2000        0
                0  -0.2000        0   0.1000  -0.2000        0
           0.2000  -0.2000        0   0.3000  -0.2000        0
           0.4000  -0.2000        0   0.5000  -0.2000        0
           0.6000  -0.2000        0   0.7000  -0.2000        0
           0.8000  -0.2000        0   0.9000  -0.2000        0
           1.0000  -0.2000        0   1.1000  -0.2000        0
           1.2000  -0.2000        0   1.3000  -0.2000        0
           1.4000  -0.2000        0   1.5000  -0.2000        0
           1.6000  -0.2000        0  -1.6000  -0.1000        0
          -1.5000  -0.1000        0  -1.4000  -0.1000        0
          -1.3000  -0.1000        0  -1.2000  -0.1000        0
          -1.1000  -0.1000        0  -1.0000  -0.1000        0
          -0.9000  -0.1000        0  -0.8000  -0.1000        0
          -0.7000  -0.1000        0  -0.6000  -0.1000        0
          -0.5000  -0.1000        0  -0.4000  -0.1000        0
          -0.3000  -0.1000        0  -0.2000  -0.1000        0
          -0.1000  -0.1000        0        0  -0.1000        0
           0.1000  -0.1000        0   0.2000  -0.1000        0
           0.3000  -0.1000        0   0.4000  -0.1000        0
           0.5000  -0.1000        0   0.6000  -0.1000        0
           0.7000  -0.1000        0   0.8000  -0.1000        0
           0.9000  -0.1000        0   1.0000  -0.1000        0
           1.1000  -0.1000        0   1.2000  -0.1000        0
           1.3000  -0.1000        0   1.4000  -0.1000        0
           1.5000  -0.1000        0   1.6000  -0.1000        0
          -1.6000        0        0  -1.5000        0        0
          -1.4000        0        0  -1.3000        0        0
          -1.2000        0        0  -1.1000        0        0
          -1.0000        0        0  -0.9000        0        0
          -0.8000        0        0  -0.7000        0        0
          -0.6000        0        0  -0.5000        0        0
          -0.4000        0        0  -0.3000        0        0
          -0.2000        0        0  -0.1000        0        0
                0        0        0   0.1000        0        0
           0.2000        0        0   0.3000        0        0
           0.4000        0        0   0.5000        0        0
           0.6000        0        0   0.7000        0        0
           0.8000        0        0   0.9000        0        0
           1.0000        0        0   1.1000        0        0
           1.2000        0        0   1.3000        0        0
           1.4000        0        0   1.5000        0        0
           1.6000        0        0  -1.6000   0.1000        0
          -1.5000   0.1000        0  -1.4000   0.1000        0
          -1.3000   0.1000        0  -1.2000   0.1000        0
          -1.1000   0.1000        0  -1.0000   0.1000        0
          -0.9000   0.1000        0  -0.8000   0.1000        0
          -0.7000   0.1000        0  -0.6000   0.1000        0
          -0.5000   0.1000        0  -0.4000   0.1000        0
          -0.3000   0.1000        0  -0.2000   0.1000        0
          -0.1000   0.1000        0        0   0.1000        0
           0.1000   0.1000        0   0.2000   0.1000        0
           0.3000   0.1000        0   0.4000   0.1000        0
           0.5000   0.1000        0   0.6000   0.1000        0
           0.7000   0.1000        0   0.8000   0.1000        0
           0.9000   0.1000        0   1.0000   0.1000        0
           1.1000   0.1000        0   1.2000   0.1000        0
           1.3000   0.1000        0   1.4000   0.1000        0
           1.5000   0.1000        0   1.6000   0.1000        0
          -1.6000   0.2000        0  -1.5000   0.2000        0
          -1.4000   0.2000        0  -1.3000   0.2000        0
          -1.2000   0.2000        0  -1.1000   0.2000        0
          -1.0000   0.2000        0  -0.9000   0.2000        0
          -0.8000   0.2000        0  -0.7000   0.2000        0
          -0.6000   0.2000        0  -0.5000   0.2000        0
          -0.4000   0.2000        0  -0.3000   0.2000        0
          -0.2000   0.2000        0  -0.1000   0.2000        0
                0   0.2000        0   0.1000   0.2000        0
           0.2000   0.2000        0   0.3000   0.2000        0
           0.4000   0.2000        0   0.5000   0.2000        0
           0.6000   0.2000        0   0.7000   0.2000        0
           0.8000   0.2000        0   0.9000   0.2000        0
           1.0000   0.2000        0   1.1000   0.2000        0
           1.2000   0.2000        0   1.3000   0.2000        0
           1.4000   0.2000        0   1.5000   0.2000        0
           1.6000   0.2000        0  -1.6000  -0.2000   0.1000
          -1.5000  -0.2000   0.1000  -1.4000  -0.2000   0.1000
          -1.3000  -0.2000   0.1000  -1.2000  -0.2000   0.1000
          -1.1000  -0.2000   0.1000  -1.0000  -0.2000   0.1000
          -0.9000  -0.2000   0.1000  -0.8000  -0.2000   0.1000
          -0.7000  -0.2000   0.1000  -0.6000  -0.2000   0.1000
          -0.5000  -0.2000   0.1000  -0.4000  -0.2000   0.1000
          -0.3000  -0.2000   0.1000  -0.2000  -0.2000   0.1000
          -0.1000  -0.2000   0.1000        0  -0.2000   0.1000
           0.1000  -0.2000   0.1000   0.2000  -0.2000   0.1000
           0.3000  -0.2000   0.1000   0.4000  -0.2000   0.1000
           0.5000  -0.2000   0.1000   0.6000  -0.2000   0.1000
           0.7000  -0.2000   0.1000   0.8000  -0.2000   0.1000
           0.9000  -0.2000   0.1000   1.0000  -0.2000   0.1000
           1.1000  -0.2000   0.1000   1.2000  -0.2000   0.1000
           1.3000  -0.2000   0.1000   1.4000  -0.2000   0.1000
           1.5000  -0.2000   0.1000   1.6000  -0.2000   0.1000
          -1.6000  -0.1000   0.1000  -1.5000  -0.1000   0.1000
          -1.4000  -0.1000   0.1000  -1.3000  -0.1000   0.1000
          -1.2000  -0.1000   0.1000  -1.1000  -0.1000   0.1000
          -1.0000  -0.1000   0.1000  -0.9000  -0.1000   0.1000
          -0.8000  -0.1000   0.1000  -0.7000  -0.1000   0.1000
          -0.6000  -0.1000   0.1000  -0.5000  -0.1000   0.1000
          -0.4000  -0.1000   0.1000  -0.3000  -0.1000   0.1000
          -0.2000  -0.1000   0.1000  -0.1000  -0.1000   0.1000
                0  -0.1000   0.1000   0.1000  -0.1000   0.1000
           0.2000  -0.1000   0.1000   0.3000  -0.1000   0.1000
           0.4000  -0.1000   0.1000   0.5000  -0.1000   0.1000
           0.6000  -0.1000   0.1000   0.7000  -0.1000   0.1000
           0.8000  -0.1000   0.1000   0.9000  -0.1000   0.1000
           1.0000  -0.1000   0.1000   1.1000  -0.1000   0.1000
           1.2000  -0.1000   0.1000   1.3000  -0.1000   0.1000
           1.4000  -0.1000   0.1000   1.5000  -0.1000   0.1000
           1.6000  -0.1000   0.1000  -1.6000        0   0.1000
          -1.5000        0   0.1000  -1.4000        0   0.1000
          -1.3000        0   0.1000  -1.2000        0   0.1000
          -1.1000        0   0.1000  -1.0000        0   0.1000
          -0.9000        0   0.1000  -0.8000        0   0.1000
          -0.7000        0   0.1000  -0.6000        0   0.1000
          -0.5000        0   0.1000  -0.4000        0   0.1000
          -0.3000        0   0.1000  -0.2000        0   0.1000
          -0.1000        0   0.1000        0        0   0.1000
           0.1000        0   0.1000   0.2000        0   0.1000
           0.3000        0   0.1000   0.4000        0   0.1000
           0.5000        0   0.1000   0.6000        0   0.1000
           0.7000        0   0.1000   0.8000        0   0.1000
           0.9000        0   0.1000   1.0000        0   0.1000
           1.1000        0   0.1000   1.2000        0   0.1000